 Gaussian 09, Revision D.01,
 Gaussian 09:  EM64L-G09RevD.01 24-Apr-2013

 ------------------
 #n RHF/STO-3G Freq
 ------------------

 --------------------
 Ethane - Frequencies
 --------------------
 Symbolic Z-matrix:
 Charge =  0 Multiplicity = 1

                         Standard orientation:
 ---------------------------------------------------------------------
 Center     Atomic      Atomic             Coordinates (Angstroms)
 Number     Number       Type             X           Y           Z
 ---------------------------------------------------------------------
      1          6           0        0.768859   -0.000010    0.000004
      2          6           0       -0.768859    0.000011   -0.000004
      3          1           0        1.153311    0.398732   -0.934208
      4          1           0        1.153312   -1.008421    0.121808
      5          1           0        1.153307    0.609731    0.812387
      6          1           0       -1.153307   -0.609730   -0.812387
      7          1           0       -1.153312    1.008422   -0.121808
      8          1           0       -1.153311   -0.398741    0.934211
 ---------------------------------------------------------------------

 SCF Done:  E(RHF) =  -78.3061796380     A.U. after    7 cycles

 The electronic state is 1-A.
 Alpha  occ. eigenvalues --  -11.03550 -11.03519  -0.98102  -0.81207  -0.57202
 Alpha  occ. eigenvalues --   -0.57200  -0.47164  -0.46033  -0.46031
 Alpha virt. eigenvalues --    0.65552   0.65554   0.68701   0.73690   0.78129
 Alpha virt. eigenvalues --    0.78918   0.78923

 Mulliken charges:
               1
     1  C   -0.174720
     2  C   -0.174718
     3  H    0.058238
     4  H    0.058243
     5  H    0.058239
     6  H    0.058239
     7  H    0.058243
     8  H    0.058237
 Sum of Mulliken charges =   0.00000

 Dipole moment (field-independent basis, Debye):
    X=              0.0000    Y=              0.0000    Z=              0.0000  Tot=              0.0000
 Quadrupole moment (field-independent basis, Debye-Ang):
   XX=            -14.4303   YY=            -14.0345   ZZ=            -14.0348
   XY=              0.0000   XZ=              0.0000   YZ=              0.0000

  Exact polarizability:  11.129   0.000  10.789   0.000   0.000  10.788
 Approx polarizability:   7.861   0.000   8.884   0.000   0.000   8.883

                      1                      2                      3
                      A                      A                      A
 Frequencies --    317.0522               980.8275               980.8376
 Red. masses --      1.0078                 1.0535                 1.0535
 Frc consts  --      0.0597                 0.5971                 0.5971
 IR Inten    --      0.0000                 3.5935                 3.5922
 Raman Activ --      0.0000                 0.0000                 0.0000

                      4                      5                      6
                      A                      A                      A
 Frequencies --   1193.1944              1459.4250              1459.4310
 Red. masses --      2.6591                 1.4188                 1.4188
 Frc consts  --      2.2306                 1.7805                 1.7804
 IR Inten    --      0.0000                 0.0000                 0.0000
 Raman Activ --     10.1941                 5.8999                 5.9027

                      7                      8                      9
                      A                      A                      A
 Frequencies --   1715.7576              1762.5878              1832.0438
 Red. masses --      1.1955                 1.3627                 1.0296
 Frc consts  --      2.0736                 2.4944                 2.0361
 IR Inten    --      0.7685                 0.0000                 0.0000
 Raman Activ --      0.0000                 6.4768                33.4712

                     10                     11                     12
                      A                      A                      A
 Frequencies --   1832.0979              1847.8233              1847.8809
 Red. masses --      1.0296                 1.0618                 1.0618
 Frc consts  --      2.0363                 2.1360                 2.1361
 IR Inten    --      0.0000                 2.6755                 2.6767
 Raman Activ --     33.4715                 0.0000                 0.0000

                     13                     14                     15
                      A                      A                      A
 Frequencies --   3569.0843              3570.1017              3745.5733
 Red. masses --      1.0361                 1.0439                 1.1106
 Frc consts  --      7.7765                 7.8393                 9.1799
 IR Inten    --      4.9421                 0.0004                 0.0000
 Raman Activ --      0.0061                77.9836                55.1820

                     16                     17                     18
                      A                      A                      A
 Frequencies --   3745.6660              3757.7555              3757.8468
 Red. masses --      1.1106                 1.1077                 1.1077
 Frc consts  --      9.1804                 9.2160                 9.2166
 IR Inten    --      0.0000                 4.2585                 4.2551
 Raman Activ --     55.1757                 0.0001                 0.0000

 - Thermochemistry -
 -------------------
 Temperature   298.150 Kelvin.  Pressure   1.00000 Atm.
 Atom     1 has atomic number  6 and mass  12.00000

 Molecular mass:    30.04695 amu.
 Principal axes and moments of inertia in atomic units:
                           1         2         3
     Eigenvalues --    22.27953  90.52646  90.52732
           X            1.00000   0.00001   0.00000
           Y           -0.00001   1.00000   0.00000
           Z            0.00000   0.00000   1.00000
 This molecule is an asymmetric top.
 Rotational symmetry number  1.
 Rotational temperatures (Kelvin)      3.88760     0.95678     0.95677
 Rotational constants (GHZ):          81.00446    19.93606    19.93587
 Zero-point vibrational energy     235514.7 (Joules/Mol)
                                   56.28937 (Kcal/Mol)
 Warning -- explicit consideration of   1 degrees of freedom as
           vibrations may cause significant error
 Vibrational temperatures:    456.17  1411.19  1411.20  1716.74  2099.78
          (Kelvin)           2099.79  2468.59  2535.97  2635.90  2635.98
                             2658.60  2658.69  5135.11  5136.57  5389.04
                             5389.17  5406.57  5406.70

 Zero-point correction=                           0.089703 (Hartree/Particle)
 Thermal correction to Energy=                    0.093051
 Thermal correction to Enthalpy=                  0.093995
 Thermal correction to Gibbs Free Energy=         0.066632
 Sum of electronic and zero-point Energies=            -78.216477
 Sum of electronic and thermal Energies=               -78.213129
 Sum of electronic and thermal Enthalpies=             -78.212184
 Sum of electronic and thermal Free Energies=          -78.239548

                     E (Thermal)             CV                S
                      KCal/Mol        Cal/Mol-Kelvin    Cal/Mol-Kelvin
 Total                   58.390              8.933             57.592
 Electronic               0.000              0.000              0.000
 Translational            0.889              2.981             36.134
 Rotational               0.889              2.981             19.840
 Vibrational             56.613              2.971              1.617
 Vibration     1          0.704              1.641              1.325

 Optimization completed.
    -- Stationary point found.
 Normal termination of Gaussian 09 at Sat Nov 14 18:16:09 2015.
